# Model for PE

     400  atoms
     396   bonds
     0     angles
     0     dihedrals

     100     atom types
       3     bond types
       0     angle types
       0     dihedral types

    -16.0   16.0 xlo xhi
    -16.0   16.0 ylo yhi
    -16.0   16.0 zlo zhi

Masses

1	0.25
2	0.25
3	0.25
4	0.25
5	0.25
6	0.25
7	0.25
8	0.25
9	0.25
10	0.25
11	0.25
12	0.25
13	0.25
14	0.25
15	0.25
16	0.25
17	0.25
18	0.25
19	0.25
20	0.25
21	0.25
22	0.25
23	0.25
24	0.25
25	0.25
26	0.25
27	0.25
28	0.25
29	0.25
30	0.25
31	0.25
32	0.25
33	0.25
34	0.25
35	0.25
36	0.25
37	0.25
38	0.25
39	0.25
40	0.25
41	0.25
42	0.25
43	0.25
44	0.25
45	0.25
46	0.25
47	0.25
48	0.25
49	0.25
50	0.25
51	0.25
52	0.25
53	0.25
54	0.25
55	0.25
56	0.25
57	0.25
58	0.25
59	0.25
60	0.25
61	0.25
62	0.25
63	0.25
64	0.25
65	0.25
66	0.25
67	0.25
68	0.25
69	0.25
70	0.25
71	0.25
72	0.25
73	0.25
74	0.25
75	0.25
76	0.25
77	0.25
78	0.25
79	0.25
80	0.25
81	0.25
82	0.25
83	0.25
84	0.25
85	0.25
86	0.25
87	0.25
88	0.25
89	0.25
90	0.25
91	0.25
92	0.25
93	0.25
94	0.25
95	0.25
96	0.25
97	0.25
98	0.25
99	0.25
100	0.25




Atoms

1	1	1	0	0	10
2	1	2	5	0.5	2
3	1	3	5	0.5	2.5
4	1	4	5.5	0.5	2.5
5	1	5	5.5	0.5	3
6	1	6	5	0.5	3
7	1	7	5	0.5	3.5
8	1	8	5	0.5	4
9	1	9	5	0.5	4.5
10	1	10	5.5	0.5	4.5
11	1	11	5.5	0.5	4
12	1	12	5.5	0.5	3.5
13	1	13	5.5	1	3.5
14	1	14	5.5	1	3
15	1	15	5	1	3
16	1	16	4.5	1	3
17	1	17	4.5	1	3.5
18	1	18	5	1	3.5
19	1	19	5	1.5	3.5
20	1	20	5	1.5	4
21	1	21	5.5	1.5	4
22	1	22	5.5	1.5	3.5
23	1	23	5.5	1.5	3
24	1	24	5.5	1.5	2.5
25	1	25	5.5	1	2.5
26	1	26	5	1	2.5
27	1	27	4.5	1	2.5
28	1	28	4.5	0.5	2.5
29	1	29	4	0.5	2.5
30	1	30	4	0.5	2
31	1	31	4.5	0.5	2
32	1	32	4.5	0.5	1.5
33	1	33	4	0.5	1.5
34	1	34	4	0.5	1
35	1	35	4.5	0.5	1
36	1	36	4.5	0.5	0.5
37	1	37	4	0.5	0.5
38	1	38	3.5	0.5	0.5
39	1	39	3.5	1	0.5
40	1	40	3.5	1.5	0.5
41	1	41	3.5	2	0.5
42	1	42	4	2	0.5
43	1	43	4	2.5	0.5
44	1	44	3.5	2.5	0.5
45	1	45	3.5	3	0.5
46	1	46	4	3	0.5
47	1	47	4.5	3	0.5
48	1	48	4.5	2.5	0.5
49	1	49	4.5	2	0.5
50	1	50	4.5	2	1
51	1	51	4.5	2.5	1
52	1	52	4.5	3	1
53	1	53	4	3	1
54	1	54	3.5	3	1
55	1	55	3.5	3.5	1
56	1	56	3.5	3.5	1.5
57	1	57	3.5	3.5	2
58	1	58	3.5	3.5	2.5
59	1	59	4	3.5	2.5
60	1	60	4	3.5	3
61	1	61	4	4	3
62	1	62	4.5	4	3
63	1	63	5	4	3
64	1	64	5	4	2.5
65	1	65	5	4.5	2.5
66	1	66	5	5	2.5
67	1	67	5.5	5	2.5
68	1	68	5.5	4.5	2.5
69	1	69	5.5	4.5	2
70	1	70	5.5	5	2
71	1	71	5.5	5.5	2
72	1	72	5.5	5.5	1.5
73	1	73	5.5	5	1.5
74	1	74	5.5	4.5	1.5
75	1	75	5	4.5	1.5
76	1	76	4.5	4.5	1.5
77	1	77	4	4.5	1.5
78	1	78	4	4	1.5
79	1	79	4	4	2
80	1	80	4	4.5	2
81	1	81	3.5	4.5	2
82	1	82	3	4.5	2
83	1	83	3	4.5	1.5
84	1	84	3	4	1.5
85	1	85	3	3.5	1.5
86	1	86	3	3.5	2
87	1	87	3	4	2
88	1	88	3.5	4	2
89	1	89	3.5	4	1.5
90	1	90	3.5	4.5	1.5
91	1	91	3.5	4.5	1
92	1	92	3.5	4	1
93	1	93	4	4	1
94	1	94	4	4.5	1
95	1	95	4	4.5	0.5
96	1	96	4	4	0.5
97	1	97	4.5	4	0.5
98	1	98	4.5	4	1
99	1	99	4.5	4.5	1
100	1	100	0	10	0
101	2	100	10	0	0
102	2	99	1	4.5	3
103	2	98	1	4.5	3.5
104	2	97	1.5	4.5	3.5
105	2	96	1.5	5	3.5
106	2	95	1.5	5.5	3.5
107	2	94	1	5.5	3.5
108	2	93	1	5.5	3
109	2	92	0.5	5.5	3
110	2	91	0.5	5.5	3.5
111	2	90	0.5	5.5	4
112	2	89	0.5	5.5	4.5
113	2	88	1	5.5	4.5
114	2	87	1	5.5	4
115	2	86	1.5	5.5	4
116	2	85	1.5	5	4
117	2	84	1.5	4.5	4
118	2	83	2	4.5	4
119	2	82	2	4	4
120	2	81	2	3.5	4
121	2	80	2	3.5	4.5
122	2	79	1.5	3.5	4.5
123	2	78	1	3.5	4.5
124	2	77	1	3.5	4
125	2	76	1	3	4
126	2	75	1	2.5	4
127	2	74	0.5	2.5	4
128	2	73	0.5	3	4
129	2	72	0.5	3.5	4
130	2	71	0.5	3.5	4.5
131	2	70	0.5	3.5	5
132	2	69	0.5	3.5	5.5
133	2	68	0.5	4	5.5
134	2	67	1	4	5.5
135	2	66	1	4.5	5.5
136	2	65	0.5	4.5	5.5
137	2	64	0.5	5	5.5
138	2	63	0.5	5	5
139	2	62	1	5	5
140	2	61	1	5	4.5
141	2	60	1	5	4
142	2	59	1	5	3.5
143	2	58	0.5	5	3.5
144	2	57	0.5	5	3
145	2	56	0.5	5	2.5
146	2	55	0.5	4.5	2.5
147	2	54	0.5	4.5	3
148	2	53	0.5	4.5	3.5
149	2	52	0.5	4	3.5
150	2	51	0.5	4	4
151	2	50	0.5	4.5	4
152	2	49	0.5	5	4
153	2	48	0.5	5	4.5
154	2	47	0.5	4.5	4.5
155	2	46	0.5	4	4.5
156	2	45	1	4	4.5
157	2	44	1	4	5
158	2	43	0.5	4	5
159	2	42	0.5	4.5	5
160	2	41	1	4.5	5
161	2	40	1.5	4.5	5
162	2	39	1.5	4.5	5.5
163	2	38	1.5	4	5.5
164	2	37	1.5	4	5
165	2	36	1.5	4	4.5
166	2	35	2	4	4.5
167	2	34	2.5	4	4.5
168	2	33	2.5	4.5	4.5
169	2	32	2	4.5	4.5
170	2	31	1.5	4.5	4.5
171	2	30	1	4.5	4.5
172	2	29	1	4.5	4
173	2	28	1	4	4
174	2	27	1	4	3.5
175	2	26	1.5	4	3.5
176	2	25	1.5	4	4
177	2	24	1.5	3.5	4
178	2	23	1.5	3.5	3.5
179	2	22	2	3.5	3.5
180	2	21	2.5	3.5	3.5
181	2	20	2.5	3	3.5
182	2	19	2.5	3	4
183	2	18	2.5	3.5	4
184	2	17	2.5	4	4
185	2	16	2.5	4.5	4
186	2	15	2.5	4.5	3.5
187	2	14	2.5	5	3.5
188	2	13	2.5	5	4
189	2	12	2.5	5.5	4
190	2	11	2	5.5	4
191	2	10	2	5	4
192	2	9	2	5	3.5
193	2	8	2	4.5	3.5
194	2	7	2	4	3.5
195	2	6	2	4	3
196	2	5	2	3.5	3
197	2	4	2	3	3
198	2	3	2	3	3.5
199	2	2	2	3	4
200	2	1	0	0	-10
201	3	1	0	-10	0
202	3	2	2.5	2.5	5.5
203	3	3	2	2.5	5.5
204	3	4	2	2	5.5
205	3	5	2.5	2	5.5
206	3	6	3	2	5.5
207	3	7	3.5	2	5.5
208	3	8	3.5	1.5	5.5
209	3	9	3	1.5	5.5
210	3	10	3	1	5.5
211	3	11	3.5	1	5.5
212	3	12	4	1	5.5
213	3	13	4	1.5	5.5
214	3	14	4	1.5	5
215	3	15	4.5	1.5	5
216	3	16	5	1.5	5
217	3	17	5	1	5
218	3	18	5	1	4.5
219	3	19	5.5	1	4.5
220	3	20	5.5	1	4
221	3	21	5	1	4
222	3	22	4.5	1	4
223	3	23	4.5	1.5	4
224	3	24	4.5	1.5	3.5
225	3	25	4.5	2	3.5
226	3	26	4.5	2.5	3.5
227	3	27	4	2.5	3.5
228	3	28	4	2.5	4
229	3	29	4	3	4
230	3	30	3.5	3	4
231	3	31	3.5	3	3.5
232	3	32	4	3	3.5
233	3	33	4.5	3	3.5
234	3	34	4.5	3.5	3.5
235	3	35	4	3.5	3.5
236	3	36	4	4	3.5
237	3	37	4	4.5	3.5
238	3	38	3.5	4.5	3.5
239	3	39	3.5	4.5	3
240	3	40	3.5	5	3
241	3	41	3.5	5.5	3
242	3	42	4	5.5	3
243	3	43	4.5	5.5	3
244	3	44	5	5.5	3
245	3	45	5.5	5.5	3
246	3	46	5.5	5.5	2.5
247	3	47	5	5.5	2.5
248	3	48	4.5	5.5	2.5
249	3	49	4.5	5	2.5
250	3	50	4	5	2.5
251	3	51	4	5.5	2.5
252	3	52	3.5	5.5	2.5
253	3	53	3.5	5	2.5
254	3	54	3	5	2.5
255	3	55	3	5.5	2.5
256	3	56	2.5	5.5	2.5
257	3	57	2.5	5	2.5
258	3	58	2.5	5	2
259	3	59	2.5	5.5	2
260	3	60	3	5.5	2
261	3	61	3.5	5.5	2
262	3	62	3.5	5	2
263	3	63	3	5	2
264	3	64	3	5	1.5
265	3	65	3	5	1
266	3	66	3	5.5	1
267	3	67	2.5	5.5	1
268	3	68	2	5.5	1
269	3	69	2	5.5	1.5
270	3	70	1.5	5.5	1.5
271	3	71	1.5	5	1.5
272	3	72	2	5	1.5
273	3	73	2	4.5	1.5
274	3	74	2.5	4.5	1.5
275	3	75	2.5	4	1.5
276	3	76	2.5	3.5	1.5
277	3	77	2.5	3	1.5
278	3	78	3	3	1.5
279	3	79	3.5	3	1.5
280	3	80	4	3	1.5
281	3	81	4	3	2
282	3	82	4	3.5	2
283	3	83	4	3.5	1.5
284	3	84	4	3.5	1
285	3	85	4.5	3.5	1
286	3	86	4.5	3.5	0.5
287	3	87	4	3.5	0.5
288	3	88	3.5	3.5	0.5
289	3	89	3.5	4	0.5
290	3	90	3.5	4.5	0.5
291	3	91	3.5	5	0.5
292	3	92	3.5	5	1
293	3	93	3.5	5	1.5
294	3	94	4	5	1.5
295	3	95	4	5	1
296	3	96	4	5.5	1
297	3	97	4	5.5	1.5
298	3	98	4	5.5	2
299	3	99	4	5	2
300	3	100	-10	0	0
301	4	100	5.77	5.77	5.77
302	4	99	2	0.5	5
303	4	98	2	0.5	4.5
304	4	97	1.5	0.5	4.5
305	4	96	1	0.5	4.5
306	4	95	1	0.5	4
307	4	94	1	1	4
308	4	93	1	1	3.5
309	4	92	1	1.5	3.5
310	4	91	1	1.5	3
311	4	90	1	2	3
312	4	89	1	2	2.5
313	4	88	0.5	2	2.5
314	4	87	0.5	2	3
315	4	86	0.5	2.5	3
316	4	85	1	2.5	3
317	4	84	1	2.5	2.5
318	4	83	0.5	2.5	2.5
319	4	82	0.5	2.5	2
320	4	81	0.5	2	2
321	4	80	1	2	2
322	4	79	1	1.5	2
323	4	78	1	1.5	2.5
324	4	77	0.5	1.5	2.5
325	4	76	0.5	1.5	2
326	4	75	0.5	1.5	1.5
327	4	74	0.5	2	1.5
328	4	73	1	2	1.5
329	4	72	1	2	1
330	4	71	1.5	2	1
331	4	70	1.5	1.5	1
332	4	69	1.5	1.5	1.5
333	4	68	1	1.5	1.5
334	4	67	1	1.5	1
335	4	66	0.5	1.5	1
336	4	65	0.5	2	1
337	4	64	0.5	2.5	1
338	4	63	1	2.5	1
339	4	62	1.5	2.5	1
340	4	61	1.5	2.5	0.5
341	4	60	1	2.5	0.5
342	4	59	1	3	0.5
343	4	58	1	3.5	0.5
344	4	57	0.5	3.5	0.5
345	4	56	0.5	4	0.5
346	4	55	0.5	4.5	0.5
347	4	54	0.5	5	0.5
348	4	53	0.5	5	1
349	4	52	0.5	5	1.5
350	4	51	0.5	5.5	1.5
351	4	50	0.5	5.5	1
352	4	49	0.5	5.5	0.5
353	4	48	1	5.5	0.5
354	4	47	1	5	0.5
355	4	46	1.5	5	0.5
356	4	45	1.5	5	1
357	4	44	1	5	1
358	4	43	1	5	1.5
359	4	42	1	5.5	1.5
360	4	41	1	5.5	1
361	4	40	1.5	5.5	1
362	4	39	1.5	5.5	0.5
363	4	38	2	5.5	0.5
364	4	37	2.5	5.5	0.5
365	4	36	3	5.5	0.5
366	4	35	3.5	5.5	0.5
367	4	34	3.5	5.5	1
368	4	33	3.5	5.5	1.5
369	4	32	3	5.5	1.5
370	4	31	2.5	5.5	1.5
371	4	30	2.5	5	1.5
372	4	29	2.5	5	1
373	4	28	2.5	5	0.5
374	4	27	3	5	0.5
375	4	26	3	4.5	0.5
376	4	25	2.5	4.5	0.5
377	4	24	2.5	4.5	1
378	4	23	3	4.5	1
379	4	22	3	4	1
380	4	21	3	4	0.5
381	4	20	2.5	4	0.5
382	4	19	2.5	4	1
383	4	18	2	4	1
384	4	17	2	4	0.5
385	4	16	2	4.5	0.5
386	4	15	2	5	0.5
387	4	14	2	5	1
388	4	13	2	4.5	1
389	4	12	1.5	4.5	1
390	4	11	1.5	4.5	1.5
391	4	10	1	4.5	1.5
392	4	9	0.5	4.5	1.5
393	4	8	0.5	4.5	2
394	4	7	0.5	5	2
395	4	6	0.5	5.5	2
396	4	5	0.5	5.5	2.5
397	4	4	1	5.5	2.5
398	4	3	1	5.5	2
399	4	2	1.5	5.5	2
400	4	1	-5.77	-5.77	-5.77


Bonds
		
1	1	1	2
2	1	2	3
3	1	3	4
4	1	4	5
5	1	5	6
6	1	6	7
7	1	7	8
8	1	8	9
9	1	9	10
10	1	10	11
11	1	11	12
12	1	12	13
13	1	13	14
14	1	14	15
15	1	15	16
16	1	16	17
17	1	17	18
18	1	18	19
19	1	19	20
20	1	20	21
21	1	21	22
22	1	22	23
23	1	23	24
24	1	24	25
25	1	25	26
26	1	26	27
27	1	27	28
28	1	28	29
29	1	29	30
30	1	30	31
31	1	31	32
32	1	32	33
33	1	33	34
34	1	34	35
35	1	35	36
36	1	36	37
37	1	37	38
38	1	38	39
39	1	39	40
40	1	40	41
41	1	41	42
42	1	42	43
43	1	43	44
44	1	44	45
45	1	45	46
46	1	46	47
47	1	47	48
48	1	48	49
49	1	49	50
50	1	50	51
51	1	51	52
52	1	52	53
53	1	53	54
54	1	54	55
55	1	55	56
56	1	56	57
57	1	57	58
58	1	58	59
59	1	59	60
60	1	60	61
61	1	61	62
62	1	62	63
63	1	63	64
64	1	64	65
65	1	65	66
66	1	66	67
67	1	67	68
68	1	68	69
69	1	69	70
70	1	70	71
71	1	71	72
72	1	72	73
73	1	73	74
74	1	74	75
75	1	75	76
76	1	76	77
77	1	77	78
78	1	78	79
79	1	79	80
80	1	80	81
81	1	81	82
82	1	82	83
83	1	83	84
84	1	84	85
85	1	85	86
86	1	86	87
87	1	87	88
88	1	88	89
89	1	89	90
90	1	90	91
91	1	91	92
92	1	92	93
93	1	93	94
94	1	94	95
95	1	95	96
96	1	96	97
97	1	97	98
98	1	98	99
99	1	99	100
100	1	101	102
101	1	102	103
102	1	103	104
103	1	104	105
104	1	105	106
105	1	106	107
106	1	107	108
107	1	108	109
108	1	109	110
109	1	110	111
110	1	111	112
111	1	112	113
112	1	113	114
113	1	114	115
114	1	115	116
115	1	116	117
116	1	117	118
117	1	118	119
118	1	119	120
119	1	120	121
120	1	121	122
121	1	122	123
122	1	123	124
123	1	124	125
124	1	125	126
125	1	126	127
126	1	127	128
127	1	128	129
128	1	129	130
129	1	130	131
130	1	131	132
131	1	132	133
132	1	133	134
133	1	134	135
134	1	135	136
135	1	136	137
136	1	137	138
137	1	138	139
138	1	139	140
139	1	140	141
140	1	141	142
141	1	142	143
142	1	143	144
143	1	144	145
144	1	145	146
145	1	146	147
146	1	147	148
147	1	148	149
148	1	149	150
149	1	150	151
150	1	151	152
151	1	152	153
152	1	153	154
153	1	154	155
154	1	155	156
155	1	156	157
156	1	157	158
157	1	158	159
158	1	159	160
159	1	160	161
160	1	161	162
161	1	162	163
162	1	163	164
163	1	164	165
164	1	165	166
165	1	166	167
166	1	167	168
167	1	168	169
168	1	169	170
169	1	170	171
170	1	171	172
171	1	172	173
172	1	173	174
173	1	174	175
174	1	175	176
175	1	176	177
176	1	177	178
177	1	178	179
178	1	179	180
179	1	180	181
180	1	181	182
181	1	182	183
182	1	183	184
183	1	184	185
184	1	185	186
185	1	186	187
186	1	187	188
187	1	188	189
188	1	189	190
189	1	190	191
190	1	191	192
191	1	192	193
192	1	193	194
193	1	194	195
194	1	195	196
195	1	196	197
196	1	197	198
197	1	198	199
198	1	199	200
199	1	201	202
200	1	202	203
201	1	203	204
202	1	204	205
203	1	205	206
204	1	206	207
205	1	207	208
206	1	208	209
207	1	209	210
208	1	210	211
209	1	211	212
210	1	212	213
211	1	213	214
212	1	214	215
213	1	215	216
214	1	216	217
215	1	217	218
216	1	218	219
217	1	219	220
218	1	220	221
219	1	221	222
220	1	222	223
221	1	223	224
222	1	224	225
223	1	225	226
224	1	226	227
225	1	227	228
226	1	228	229
227	1	229	230
228	1	230	231
229	1	231	232
230	1	232	233
231	1	233	234
232	1	234	235
233	1	235	236
234	1	236	237
235	1	237	238
236	1	238	239
237	1	239	240
238	1	240	241
239	1	241	242
240	1	242	243
241	1	243	244
242	1	244	245
243	1	245	246
244	1	246	247
245	1	247	248
246	1	248	249
247	1	249	250
248	1	250	251
249	1	251	252
250	1	252	253
251	1	253	254
252	1	254	255
253	1	255	256
254	1	256	257
255	1	257	258
256	1	258	259
257	1	259	260
258	1	260	261
259	1	261	262
260	1	262	263
261	1	263	264
262	1	264	265
263	1	265	266
264	1	266	267
265	1	267	268
266	1	268	269
267	1	269	270
268	1	270	271
269	1	271	272
270	1	272	273
271	1	273	274
272	1	274	275
273	1	275	276
274	1	276	277
275	1	277	278
276	1	278	279
277	1	279	280
278	1	280	281
279	1	281	282
280	1	282	283
281	1	283	284
282	1	284	285
283	1	285	286
284	1	286	287
285	1	287	288
286	1	288	289
287	1	289	290
288	1	290	291
289	1	291	292
290	1	292	293
291	1	293	294
292	1	294	295
293	1	295	296
294	1	296	297
295	1	297	298
296	1	298	299
297	1	299	300
298	1	301	302
299	1	302	303
300	1	303	304
301	1	304	305
302	1	305	306
303	1	306	307
304	1	307	308
305	1	308	309
306	1	309	310
307	1	310	311
308	1	311	312
309	1	312	313
310	1	313	314
311	1	314	315
312	1	315	316
313	1	316	317
314	1	317	318
315	1	318	319
316	1	319	320
317	1	320	321
318	1	321	322
319	1	322	323
320	1	323	324
321	1	324	325
322	1	325	326
323	1	326	327
324	1	327	328
325	1	328	329
326	1	329	330
327	1	330	331
328	1	331	332
329	1	332	333
330	1	333	334
331	1	334	335
332	1	335	336
333	1	336	337
334	1	337	338
335	1	338	339
336	1	339	340
337	1	340	341
338	1	341	342
339	1	342	343
340	1	343	344
341	1	344	345
342	1	345	346
343	1	346	347
344	1	347	348
345	1	348	349
346	1	349	350
347	1	350	351
348	1	351	352
349	1	352	353
350	1	353	354
351	1	354	355
352	1	355	356
353	1	356	357
354	1	357	358
355	1	358	359
356	1	359	360
357	1	360	361
358	1	361	362
359	1	362	363
360	1	363	364
361	1	364	365
362	1	365	366
363	1	366	367
364	1	367	368
365	1	368	369
366	1	369	370
367	1	370	371
368	1	371	372
369	1	372	373
370	1	373	374
371	1	374	375
372	1	375	376
373	1	376	377
374	1	377	378
375	1	378	379
376	1	379	380
377	1	380	381
378	1	381	382
379	1	382	383
380	1	383	384
381	1	384	385
382	1	385	386
383	1	386	387
384	1	387	388
385	1	388	389
386	1	389	390
387	1	390	391
388	1	391	392
389	1	392	393
390	1	393	394
391	1	394	395
392	1	395	396
393	1	396	397
394	1	397	398
395	1	398	399
396	1	399	400















